t 2.5e-05 /NodeList/0/DeviceList/1/$ns3::WifiNetDevice/Phy/State/Tx ns3::WifiMacHeader (MGT_BEACON ToDS=0, FromDS=0, MoreFrag=0, Retry=0, MoreData=0 Duration/ID=0us, DA=ff:ff:ff:ff:ff:ff, SA=00:00:00:00:00:08, BSSID=00:00:00:00:00:08, FragNumber=0, SeqNumber=0) ns3::MgtProbeResponseHeader (ssid=ns-3-ssid, rates=[*6mbs 9mbs *12mbs 18mbs *24mbs 36mbs 48mbs 54mbs], ERP information=0|0|0, HT Capabilities=0|0|0|0 , HT Operations=0|0|0 , VHT Capabilities= 0|0) ns3::WifiMacTrailer ()
r 0.000133033 /NodeList/4/DeviceList/0/$ns3::WifiNetDevice/Phy/State/RxOk ns3::WifiMacHeader (MGT_BEACON ToDS=0, FromDS=0, MoreFrag=0, Retry=0, MoreData=0 Duration/ID=0us, DA=ff:ff:ff:ff:ff:ff, SA=00:00:00:00:00:08, BSSID=00:00:00:00:00:08, FragNumber=0, SeqNumber=0) ns3::MgtProbeResponseHeader (ssid=ns-3-ssid, rates=[*6mbs 9mbs *12mbs 18mbs *24mbs 36mbs 48mbs 54mbs], ERP information=0|0|0, HT Capabilities=0|0|0|0 , HT Operations=0|0|0 , VHT Capabilities= 0|0) ns3::WifiMacTrailer ()
r 0.000133037 /NodeList/5/DeviceList/0/$ns3::WifiNetDevice/Phy/State/RxOk ns3::WifiMacHeader (MGT_BEACON ToDS=0, FromDS=0, MoreFrag=0, Retry=0, MoreData=0 Duration/ID=0us, DA=ff:ff:ff:ff:ff:ff, SA=00:00:00:00:00:08, BSSID=00:00:00:00:00:08, FragNumber=0, SeqNumber=0) ns3::MgtProbeResponseHeader (ssid=ns-3-ssid, rates=[*6mbs 9mbs *12mbs 18mbs *24mbs 36mbs 48mbs 54mbs], ERP information=0|0|0, HT Capabilities=0|0|0|0 , HT Operations=0|0|0 , VHT Capabilities= 0|0) ns3::WifiMacTrailer ()
r 0.000133047 /NodeList/6/DeviceList/0/$ns3::WifiNetDevice/Phy/State/RxOk ns3::WifiMacHeader (MGT_BEACON ToDS=0, FromDS=0, MoreFrag=0, Retry=0, MoreData=0 Duration/ID=0us, DA=ff:ff:ff:ff:ff:ff, SA=00:00:00:00:00:08, BSSID=00:00:00:00:00:08, FragNumber=0, SeqNumber=0) ns3::MgtProbeResponseHeader (ssid=ns-3-ssid, rates=[*6mbs 9mbs *12mbs 18mbs *24mbs 36mbs 48mbs 54mbs], ERP information=0|0|0, HT Capabilities=0|0|0|0 , HT Operations=0|0|0 , VHT Capabilities= 0|0) ns3::WifiMacTrailer ()
t 0.000212037 /NodeList/5/DeviceList/0/$ns3::WifiNetDevice/Phy/State/Tx ns3::WifiMacHeader (MGT_ASSOCIATION_REQUEST ToDS=0, FromDS=0, MoreFrag=0, Retry=0, MoreData=0 Duration/ID=60us, DA=00:00:00:00:00:08, SA=00:00:00:00:00:06, BSSID=00:00:00:00:00:08, FragNumber=0, SeqNumber=0) ns3::MgtAssocRequestHeader (ssid=ns-3-ssid, rates=[6mbs 9mbs 12mbs 18mbs 24mbs 36mbs 48mbs 54mbs], HT Capabilities=0|0|0|0 , VHT Capabilities= 0|0) ns3::WifiMacTrailer ()
r 0.000308053 /NodeList/4/DeviceList/0/$ns3::WifiNetDevice/Phy/State/RxOk ns3::WifiMacHeader (MGT_ASSOCIATION_REQUEST ToDS=0, FromDS=0, MoreFrag=0, Retry=0, MoreData=0 Duration/ID=60us, DA=00:00:00:00:00:08, SA=00:00:00:00:00:06, BSSID=00:00:00:00:00:08, FragNumber=0, SeqNumber=0) ns3::MgtAssocRequestHeader (ssid=ns-3-ssid, rates=[6mbs 9mbs 12mbs 18mbs 24mbs 36mbs 48mbs 54mbs], HT Capabilities=0|0|0|0 , VHT Capabilities= 0|0) ns3::WifiMacTrailer ()
r 0.000308053 /NodeList/6/DeviceList/0/$ns3::WifiNetDevice/Phy/State/RxOk ns3::WifiMacHeader (MGT_ASSOCIATION_REQUEST ToDS=0, FromDS=0, MoreFrag=0, Retry=0, MoreData=0 Duration/ID=60us, DA=00:00:00:00:00:08, SA=00:00:00:00:00:06, BSSID=00:00:00:00:00:08, FragNumber=0, SeqNumber=0) ns3::MgtAssocRequestHeader (ssid=ns-3-ssid, rates=[6mbs 9mbs 12mbs 18mbs 24mbs 36mbs 48mbs 54mbs], HT Capabilities=0|0|0|0 , VHT Capabilities= 0|0) ns3::WifiMacTrailer ()
r 0.000308074 /NodeList/0/DeviceList/1/$ns3::WifiNetDevice/Phy/State/RxOk ns3::WifiMacHeader (MGT_ASSOCIATION_REQUEST ToDS=0, FromDS=0, MoreFrag=0, Retry=0, MoreData=0 Duration/ID=60us, DA=00:00:00:00:00:08, SA=00:00:00:00:00:06, BSSID=00:00:00:00:00:08, FragNumber=0, SeqNumber=0) ns3::MgtAssocRequestHeader (ssid=ns-3-ssid, rates=[6mbs 9mbs 12mbs 18mbs 24mbs 36mbs 48mbs 54mbs], HT Capabilities=0|0|0|0 , VHT Capabilities= 0|0) ns3::WifiMacTrailer ()
t 0.000324074 /NodeList/0/DeviceList/1/$ns3::WifiNetDevice/Phy/State/Tx ns3::WifiMacHeader (CTL_ACK Duration/ID=0us, RA=00:00:00:00:00:06) ns3::WifiMacTrailer ()
r 0.000368107 /NodeList/4/DeviceList/0/$ns3::WifiNetDevice/Phy/State/RxOk ns3::WifiMacHeader (CTL_ACK Duration/ID=0us, RA=00:00:00:00:00:06) ns3::WifiMacTrailer ()
r 0.000368111 /NodeList/5/DeviceList/0/$ns3::WifiNetDevice/Phy/State/RxOk ns3::WifiMacHeader (CTL_ACK Duration/ID=0us, RA=00:00:00:00:00:06) ns3::WifiMacTrailer ()
r 0.000368121 /NodeList/6/DeviceList/0/$ns3::WifiNetDevice/Phy/State/RxOk ns3::WifiMacHeader (CTL_ACK Duration/ID=0us, RA=00:00:00:00:00:06) ns3::WifiMacTrailer ()
t 0.000402074 /NodeList/0/DeviceList/1/$ns3::WifiNetDevice/Phy/State/Tx ns3::WifiMacHeader (MGT_ASSOCIATION_RESPONSE ToDS=0, FromDS=0, MoreFrag=0, Retry=0, MoreData=0 Duration/ID=60us, DA=00:00:00:00:00:06, SA=00:00:00:00:00:08, BSSID=00:00:00:00:00:08, FragNumber=0, SeqNumber=1) ns3::MgtAssocResponseHeader (status code=success, rates=[*6mbs 9mbs *12mbs 18mbs *24mbs 36mbs 48mbs 54mbs], ERP information=0|0|0, HT Capabilities=0|0|0|0 , HT Operations=0|0|0 , VHT Capabilities= 0|0) ns3::WifiMacTrailer ()
r 0.000486107 /NodeList/4/DeviceList/0/$ns3::WifiNetDevice/Phy/State/RxOk ns3::WifiMacHeader (MGT_ASSOCIATION_RESPONSE ToDS=0, FromDS=0, MoreFrag=0, Retry=0, MoreData=0 Duration/ID=60us, DA=00:00:00:00:00:06, SA=00:00:00:00:00:08, BSSID=00:00:00:00:00:08, FragNumber=0, SeqNumber=1) ns3::MgtAssocResponseHeader (status code=success, rates=[*6mbs 9mbs *12mbs 18mbs *24mbs 36mbs 48mbs 54mbs], ERP information=0|0|0, HT Capabilities=0|0|0|0 , HT Operations=0|0|0 , VHT Capabilities= 0|0) ns3::WifiMacTrailer ()
r 0.000486111 /NodeList/5/DeviceList/0/$ns3::WifiNetDevice/Phy/State/RxOk ns3::WifiMacHeader (MGT_ASSOCIATION_RESPONSE ToDS=0, FromDS=0, MoreFrag=0, Retry=0, MoreData=0 Duration/ID=60us, DA=00:00:00:00:00:06, SA=00:00:00:00:00:08, BSSID=00:00:00:00:00:08, FragNumber=0, SeqNumber=1) ns3::MgtAssocResponseHeader (status code=success, rates=[*6mbs 9mbs *12mbs 18mbs *24mbs 36mbs 48mbs 54mbs], ERP information=0|0|0, HT Capabilities=0|0|0|0 , HT Operations=0|0|0 , VHT Capabilities= 0|0) ns3::WifiMacTrailer ()
r 0.000486121 /NodeList/6/DeviceList/0/$ns3::WifiNetDevice/Phy/State/RxOk ns3::WifiMacHeader (MGT_ASSOCIATION_RESPONSE ToDS=0, FromDS=0, MoreFrag=0, Retry=0, MoreData=0 Duration/ID=60us, DA=00:00:00:00:00:06, SA=00:00:00:00:00:08, BSSID=00:00:00:00:00:08, FragNumber=0, SeqNumber=1) ns3::MgtAssocResponseHeader (status code=success, rates=[*6mbs 9mbs *12mbs 18mbs *24mbs 36mbs 48mbs 54mbs], ERP information=0|0|0, HT Capabilities=0|0|0|0 , HT Operations=0|0|0 , VHT Capabilities= 0|0) ns3::WifiMacTrailer ()
t 0.000502111 /NodeList/5/DeviceList/0/$ns3::WifiNetDevice/Phy/State/Tx ns3::WifiMacHeader (CTL_ACK Duration/ID=0us, RA=00:00:00:00:00:08) ns3::WifiMacTrailer ()
r 0.000546127 /NodeList/4/DeviceList/0/$ns3::WifiNetDevice/Phy/State/RxOk ns3::WifiMacHeader (CTL_ACK Duration/ID=0us, RA=00:00:00:00:00:08) ns3::WifiMacTrailer ()
r 0.000546127 /NodeList/6/DeviceList/0/$ns3::WifiNetDevice/Phy/State/RxOk ns3::WifiMacHeader (CTL_ACK Duration/ID=0us, RA=00:00:00:00:00:08) ns3::WifiMacTrailer ()
r 0.000546148 /NodeList/0/DeviceList/1/$ns3::WifiNetDevice/Phy/State/RxOk ns3::WifiMacHeader (CTL_ACK Duration/ID=0us, RA=00:00:00:00:00:08) ns3::WifiMacTrailer ()
t 0.000625127 /NodeList/4/DeviceList/0/$ns3::WifiNetDevice/Phy/State/Tx ns3::WifiMacHeader (MGT_ASSOCIATION_REQUEST ToDS=0, FromDS=0, MoreFrag=0, Retry=0, MoreData=0 Duration/ID=60us, DA=00:00:00:00:00:08, SA=00:00:00:00:00:05, BSSID=00:00:00:00:00:08, FragNumber=0, SeqNumber=0) ns3::MgtAssocRequestHeader (ssid=ns-3-ssid, rates=[6mbs 9mbs 12mbs 18mbs 24mbs 36mbs 48mbs 54mbs], HT Capabilities=0|0|0|0 , VHT Capabilities= 0|0) ns3::WifiMacTrailer ()
r 0.000721143 /NodeList/5/DeviceList/0/$ns3::WifiNetDevice/Phy/State/RxOk ns3::WifiMacHeader (MGT_ASSOCIATION_REQUEST ToDS=0, FromDS=0, MoreFrag=0, Retry=0, MoreData=0 Duration/ID=60us, DA=00:00:00:00:00:08, SA=00:00:00:00:00:05, BSSID=00:00:00:00:00:08, FragNumber=0, SeqNumber=0) ns3::MgtAssocRequestHeader (ssid=ns-3-ssid, rates=[6mbs 9mbs 12mbs 18mbs 24mbs 36mbs 48mbs 54mbs], HT Capabilities=0|0|0|0 , VHT Capabilities= 0|0) ns3::WifiMacTrailer ()
r 0.00072116 /NodeList/6/DeviceList/0/$ns3::WifiNetDevice/Phy/State/RxOk ns3::WifiMacHeader (MGT_ASSOCIATION_REQUEST ToDS=0, FromDS=0, MoreFrag=0, Retry=0, MoreData=0 Duration/ID=60us, DA=00:00:00:00:00:08, SA=00:00:00:00:00:05, BSSID=00:00:00:00:00:08, FragNumber=0, SeqNumber=0) ns3::MgtAssocRequestHeader (ssid=ns-3-ssid, rates=[6mbs 9mbs 12mbs 18mbs 24mbs 36mbs 48mbs 54mbs], HT Capabilities=0|0|0|0 , VHT Capabilities= 0|0) ns3::WifiMacTrailer ()
r 0.00072116 /NodeList/0/DeviceList/1/$ns3::WifiNetDevice/Phy/State/RxOk ns3::WifiMacHeader (MGT_ASSOCIATION_REQUEST ToDS=0, FromDS=0, MoreFrag=0, Retry=0, MoreData=0 Duration/ID=60us, DA=00:00:00:00:00:08, SA=00:00:00:00:00:05, BSSID=00:00:00:00:00:08, FragNumber=0, SeqNumber=0) ns3::MgtAssocRequestHeader (ssid=ns-3-ssid, rates=[6mbs 9mbs 12mbs 18mbs 24mbs 36mbs 48mbs 54mbs], HT Capabilities=0|0|0|0 , VHT Capabilities= 0|0) ns3::WifiMacTrailer ()
t 0.00073716 /NodeList/0/DeviceList/1/$ns3::WifiNetDevice/Phy/State/Tx ns3::WifiMacHeader (CTL_ACK Duration/ID=0us, RA=00:00:00:00:00:05) ns3::WifiMacTrailer ()
r 0.000781193 /NodeList/4/DeviceList/0/$ns3::WifiNetDevice/Phy/State/RxOk ns3::WifiMacHeader (CTL_ACK Duration/ID=0us, RA=00:00:00:00:00:05) ns3::WifiMacTrailer ()
r 0.000781197 /NodeList/5/DeviceList/0/$ns3::WifiNetDevice/Phy/State/RxOk ns3::WifiMacHeader (CTL_ACK Duration/ID=0us, RA=00:00:00:00:00:05) ns3::WifiMacTrailer ()
r 0.000781207 /NodeList/6/DeviceList/0/$ns3::WifiNetDevice/Phy/State/RxOk ns3::WifiMacHeader (CTL_ACK Duration/ID=0us, RA=00:00:00:00:00:05) ns3::WifiMacTrailer ()
t 0.00082416 /NodeList/0/DeviceList/1/$ns3::WifiNetDevice/Phy/State/Tx ns3::WifiMacHeader (MGT_ASSOCIATION_RESPONSE ToDS=0, FromDS=0, MoreFrag=0, Retry=0, MoreData=0 Duration/ID=60us, DA=00:00:00:00:00:05, SA=00:00:00:00:00:08, BSSID=00:00:00:00:00:08, FragNumber=0, SeqNumber=2) ns3::MgtAssocResponseHeader (status code=success, rates=[*6mbs 9mbs *12mbs 18mbs *24mbs 36mbs 48mbs 54mbs], ERP information=0|0|0, HT Capabilities=0|0|0|0 , HT Operations=0|0|0 , VHT Capabilities= 0|0) ns3::WifiMacTrailer ()
r 0.000908193 /NodeList/4/DeviceList/0/$ns3::WifiNetDevice/Phy/State/RxOk ns3::WifiMacHeader (MGT_ASSOCIATION_RESPONSE ToDS=0, FromDS=0, MoreFrag=0, Retry=0, MoreData=0 Duration/ID=60us, DA=00:00:00:00:00:05, SA=00:00:00:00:00:08, BSSID=00:00:00:00:00:08, FragNumber=0, SeqNumber=2) ns3::MgtAssocResponseHeader (status code=success, rates=[*6mbs 9mbs *12mbs 18mbs *24mbs 36mbs 48mbs 54mbs], ERP information=0|0|0, HT Capabilities=0|0|0|0 , HT Operations=0|0|0 , VHT Capabilities= 0|0) ns3::WifiMacTrailer ()
r 0.000908197 /NodeList/5/DeviceList/0/$ns3::WifiNetDevice/Phy/State/RxOk ns3::WifiMacHeader (MGT_ASSOCIATION_RESPONSE ToDS=0, FromDS=0, MoreFrag=0, Retry=0, MoreData=0 Duration/ID=60us, DA=00:00:00:00:00:05, SA=00:00:00:00:00:08, BSSID=00:00:00:00:00:08, FragNumber=0, SeqNumber=2) ns3::MgtAssocResponseHeader (status code=success, rates=[*6mbs 9mbs *12mbs 18mbs *24mbs 36mbs 48mbs 54mbs], ERP information=0|0|0, HT Capabilities=0|0|0|0 , HT Operations=0|0|0 , VHT Capabilities= 0|0) ns3::WifiMacTrailer ()
r 0.000908207 /NodeList/6/DeviceList/0/$ns3::WifiNetDevice/Phy/State/RxOk ns3::WifiMacHeader (MGT_ASSOCIATION_RESPONSE ToDS=0, FromDS=0, MoreFrag=0, Retry=0, MoreData=0 Duration/ID=60us, DA=00:00:00:00:00:05, SA=00:00:00:00:00:08, BSSID=00:00:00:00:00:08, FragNumber=0, SeqNumber=2) ns3::MgtAssocResponseHeader (status code=success, rates=[*6mbs 9mbs *12mbs 18mbs *24mbs 36mbs 48mbs 54mbs], ERP information=0|0|0, HT Capabilities=0|0|0|0 , HT Operations=0|0|0 , VHT Capabilities= 0|0) ns3::WifiMacTrailer ()
t 0.000924193 /NodeList/4/DeviceList/0/$ns3::WifiNetDevice/Phy/State/Tx ns3::WifiMacHeader (CTL_ACK Duration/ID=0us, RA=00:00:00:00:00:08) ns3::WifiMacTrailer ()
r 0.000968209 /NodeList/5/DeviceList/0/$ns3::WifiNetDevice/Phy/State/RxOk ns3::WifiMacHeader (CTL_ACK Duration/ID=0us, RA=00:00:00:00:00:08) ns3::WifiMacTrailer ()
r 0.000968226 /NodeList/6/DeviceList/0/$ns3::WifiNetDevice/Phy/State/RxOk ns3::WifiMacHeader (CTL_ACK Duration/ID=0us, RA=00:00:00:00:00:08) ns3::WifiMacTrailer ()
r 0.000968226 /NodeList/0/DeviceList/1/$ns3::WifiNetDevice/Phy/State/RxOk ns3::WifiMacHeader (CTL_ACK Duration/ID=0us, RA=00:00:00:00:00:08) ns3::WifiMacTrailer ()
t 0.00103823 /NodeList/6/DeviceList/0/$ns3::WifiNetDevice/Phy/State/Tx ns3::WifiMacHeader (MGT_ASSOCIATION_REQUEST ToDS=0, FromDS=0, MoreFrag=0, Retry=0, MoreData=0 Duration/ID=60us, DA=00:00:00:00:00:08, SA=00:00:00:00:00:07, BSSID=00:00:00:00:00:08, FragNumber=0, SeqNumber=0) ns3::MgtAssocRequestHeader (ssid=ns-3-ssid, rates=[6mbs 9mbs 12mbs 18mbs 24mbs 36mbs 48mbs 54mbs], HT Capabilities=0|0|0|0 , VHT Capabilities= 0|0) ns3::WifiMacTrailer ()
r 0.00113424 /NodeList/5/DeviceList/0/$ns3::WifiNetDevice/Phy/State/RxOk ns3::WifiMacHeader (MGT_ASSOCIATION_REQUEST ToDS=0, FromDS=0, MoreFrag=0, Retry=0, MoreData=0 Duration/ID=60us, DA=00:00:00:00:00:08, SA=00:00:00:00:00:07, BSSID=00:00:00:00:00:08, FragNumber=0, SeqNumber=0) ns3::MgtAssocRequestHeader (ssid=ns-3-ssid, rates=[6mbs 9mbs 12mbs 18mbs 24mbs 36mbs 48mbs 54mbs], HT Capabilities=0|0|0|0 , VHT Capabilities= 0|0) ns3::WifiMacTrailer ()
r 0.00113426 /NodeList/4/DeviceList/0/$ns3::WifiNetDevice/Phy/State/RxOk ns3::WifiMacHeader (MGT_ASSOCIATION_REQUEST ToDS=0, FromDS=0, MoreFrag=0, Retry=0, MoreData=0 Duration/ID=60us, DA=00:00:00:00:00:08, SA=00:00:00:00:00:07, BSSID=00:00:00:00:00:08, FragNumber=0, SeqNumber=0) ns3::MgtAssocRequestHeader (ssid=ns-3-ssid, rates=[6mbs 9mbs 12mbs 18mbs 24mbs 36mbs 48mbs 54mbs], HT Capabilities=0|0|0|0 , VHT Capabilities= 0|0) ns3::WifiMacTrailer ()
r 0.00113427 /NodeList/0/DeviceList/1/$ns3::WifiNetDevice/Phy/State/RxOk ns3::WifiMacHeader (MGT_ASSOCIATION_REQUEST ToDS=0, FromDS=0, MoreFrag=0, Retry=0, MoreData=0 Duration/ID=60us, DA=00:00:00:00:00:08, SA=00:00:00:00:00:07, BSSID=00:00:00:00:00:08, FragNumber=0, SeqNumber=0) ns3::MgtAssocRequestHeader (ssid=ns-3-ssid, rates=[6mbs 9mbs 12mbs 18mbs 24mbs 36mbs 48mbs 54mbs], HT Capabilities=0|0|0|0 , VHT Capabilities= 0|0) ns3::WifiMacTrailer ()
t 0.00115027 /NodeList/0/DeviceList/1/$ns3::WifiNetDevice/Phy/State/Tx ns3::WifiMacHeader (CTL_ACK Duration/ID=0us, RA=00:00:00:00:00:07) ns3::WifiMacTrailer ()
r 0.00119431 /NodeList/4/DeviceList/0/$ns3::WifiNetDevice/Phy/State/RxOk ns3::WifiMacHeader (CTL_ACK Duration/ID=0us, RA=00:00:00:00:00:07) ns3::WifiMacTrailer ()
r 0.00119431 /NodeList/5/DeviceList/0/$ns3::WifiNetDevice/Phy/State/RxOk ns3::WifiMacHeader (CTL_ACK Duration/ID=0us, RA=00:00:00:00:00:07) ns3::WifiMacTrailer ()
r 0.00119432 /NodeList/6/DeviceList/0/$ns3::WifiNetDevice/Phy/State/RxOk ns3::WifiMacHeader (CTL_ACK Duration/ID=0us, RA=00:00:00:00:00:07) ns3::WifiMacTrailer ()
t 0.00127327 /NodeList/0/DeviceList/1/$ns3::WifiNetDevice/Phy/State/Tx ns3::WifiMacHeader (MGT_ASSOCIATION_RESPONSE ToDS=0, FromDS=0, MoreFrag=0, Retry=0, MoreData=0 Duration/ID=60us, DA=00:00:00:00:00:07, SA=00:00:00:00:00:08, BSSID=00:00:00:00:00:08, FragNumber=0, SeqNumber=3) ns3::MgtAssocResponseHeader (status code=success, rates=[*6mbs 9mbs *12mbs 18mbs *24mbs 36mbs 48mbs 54mbs], ERP information=0|0|0, HT Capabilities=0|0|0|0 , HT Operations=0|0|0 , VHT Capabilities= 0|0) ns3::WifiMacTrailer ()
r 0.00135731 /NodeList/4/DeviceList/0/$ns3::WifiNetDevice/Phy/State/RxOk ns3::WifiMacHeader (MGT_ASSOCIATION_RESPONSE ToDS=0, FromDS=0, MoreFrag=0, Retry=0, MoreData=0 Duration/ID=60us, DA=00:00:00:00:00:07, SA=00:00:00:00:00:08, BSSID=00:00:00:00:00:08, FragNumber=0, SeqNumber=3) ns3::MgtAssocResponseHeader (status code=success, rates=[*6mbs 9mbs *12mbs 18mbs *24mbs 36mbs 48mbs 54mbs], ERP information=0|0|0, HT Capabilities=0|0|0|0 , HT Operations=0|0|0 , VHT Capabilities= 0|0) ns3::WifiMacTrailer ()
r 0.00135731 /NodeList/5/DeviceList/0/$ns3::WifiNetDevice/Phy/State/RxOk ns3::WifiMacHeader (MGT_ASSOCIATION_RESPONSE ToDS=0, FromDS=0, MoreFrag=0, Retry=0, MoreData=0 Duration/ID=60us, DA=00:00:00:00:00:07, SA=00:00:00:00:00:08, BSSID=00:00:00:00:00:08, FragNumber=0, SeqNumber=3) ns3::MgtAssocResponseHeader (status code=success, rates=[*6mbs 9mbs *12mbs 18mbs *24mbs 36mbs 48mbs 54mbs], ERP information=0|0|0, HT Capabilities=0|0|0|0 , HT Operations=0|0|0 , VHT Capabilities= 0|0) ns3::WifiMacTrailer ()
r 0.00135732 /NodeList/6/DeviceList/0/$ns3::WifiNetDevice/Phy/State/RxOk ns3::WifiMacHeader (MGT_ASSOCIATION_RESPONSE ToDS=0, FromDS=0, MoreFrag=0, Retry=0, MoreData=0 Duration/ID=60us, DA=00:00:00:00:00:07, SA=00:00:00:00:00:08, BSSID=00:00:00:00:00:08, FragNumber=0, SeqNumber=3) ns3::MgtAssocResponseHeader (status code=success, rates=[*6mbs 9mbs *12mbs 18mbs *24mbs 36mbs 48mbs 54mbs], ERP information=0|0|0, HT Capabilities=0|0|0|0 , HT Operations=0|0|0 , VHT Capabilities= 0|0) ns3::WifiMacTrailer ()
t 0.00137332 /NodeList/6/DeviceList/0/$ns3::WifiNetDevice/Phy/State/Tx ns3::WifiMacHeader (CTL_ACK Duration/ID=0us, RA=00:00:00:00:00:08) ns3::WifiMacTrailer ()
r 0.00141734 /NodeList/5/DeviceList/0/$ns3::WifiNetDevice/Phy/State/RxOk ns3::WifiMacHeader (CTL_ACK Duration/ID=0us, RA=00:00:00:00:00:08) ns3::WifiMacTrailer ()
r 0.00141735 /NodeList/4/DeviceList/0/$ns3::WifiNetDevice/Phy/State/RxOk ns3::WifiMacHeader (CTL_ACK Duration/ID=0us, RA=00:00:00:00:00:08) ns3::WifiMacTrailer ()
r 0.00141737 /NodeList/0/DeviceList/1/$ns3::WifiNetDevice/Phy/State/RxOk ns3::WifiMacHeader (CTL_ACK Duration/ID=0us, RA=00:00:00:00:00:08) ns3::WifiMacTrailer ()
t 0.1024 /NodeList/0/DeviceList/1/$ns3::WifiNetDevice/Phy/State/Tx ns3::WifiMacHeader (MGT_BEACON ToDS=0, FromDS=0, MoreFrag=0, Retry=0, MoreData=0 Duration/ID=0us, DA=ff:ff:ff:ff:ff:ff, SA=00:00:00:00:00:08, BSSID=00:00:00:00:00:08, FragNumber=0, SeqNumber=4) ns3::MgtProbeResponseHeader (ssid=ns-3-ssid, rates=[*6mbs 9mbs *12mbs 18mbs *24mbs 36mbs 48mbs 54mbs], ERP information=0|0|0, HT Capabilities=0|0|0|0 , HT Operations=0|0|0 , VHT Capabilities= 0|0) ns3::WifiMacTrailer ()
r 0.102508 /NodeList/4/DeviceList/0/$ns3::WifiNetDevice/Phy/State/RxOk ns3::WifiMacHeader (MGT_BEACON ToDS=0, FromDS=0, MoreFrag=0, Retry=0, MoreData=0 Duration/ID=0us, DA=ff:ff:ff:ff:ff:ff, SA=00:00:00:00:00:08, BSSID=00:00:00:00:00:08, FragNumber=0, SeqNumber=4) ns3::MgtProbeResponseHeader (ssid=ns-3-ssid, rates=[*6mbs 9mbs *12mbs 18mbs *24mbs 36mbs 48mbs 54mbs], ERP information=0|0|0, HT Capabilities=0|0|0|0 , HT Operations=0|0|0 , VHT Capabilities= 0|0) ns3::WifiMacTrailer ()
r 0.102508 /NodeList/5/DeviceList/0/$ns3::WifiNetDevice/Phy/State/RxOk ns3::WifiMacHeader (MGT_BEACON ToDS=0, FromDS=0, MoreFrag=0, Retry=0, MoreData=0 Duration/ID=0us, DA=ff:ff:ff:ff:ff:ff, SA=00:00:00:00:00:08, BSSID=00:00:00:00:00:08, FragNumber=0, SeqNumber=4) ns3::MgtProbeResponseHeader (ssid=ns-3-ssid, rates=[*6mbs 9mbs *12mbs 18mbs *24mbs 36mbs 48mbs 54mbs], ERP information=0|0|0, HT Capabilities=0|0|0|0 , HT Operations=0|0|0 , VHT Capabilities= 0|0) ns3::WifiMacTrailer ()
r 0.102508 /NodeList/6/DeviceList/0/$ns3::WifiNetDevice/Phy/State/RxOk ns3::WifiMacHeader (MGT_BEACON ToDS=0, FromDS=0, MoreFrag=0, Retry=0, MoreData=0 Duration/ID=0us, DA=ff:ff:ff:ff:ff:ff, SA=00:00:00:00:00:08, BSSID=00:00:00:00:00:08, FragNumber=0, SeqNumber=4) ns3::MgtProbeResponseHeader (ssid=ns-3-ssid, rates=[*6mbs 9mbs *12mbs 18mbs *24mbs 36mbs 48mbs 54mbs], ERP information=0|0|0, HT Capabilities=0|0|0|0 , HT Operations=0|0|0 , VHT Capabilities= 0|0) ns3::WifiMacTrailer ()
t 0.2048 /NodeList/0/DeviceList/1/$ns3::WifiNetDevice/Phy/State/Tx ns3::WifiMacHeader (MGT_BEACON ToDS=0, FromDS=0, MoreFrag=0, Retry=0, MoreData=0 Duration/ID=0us, DA=ff:ff:ff:ff:ff:ff, SA=00:00:00:00:00:08, BSSID=00:00:00:00:00:08, FragNumber=0, SeqNumber=5) ns3::MgtProbeResponseHeader (ssid=ns-3-ssid, rates=[*6mbs 9mbs *12mbs 18mbs *24mbs 36mbs 48mbs 54mbs], ERP information=0|0|0, HT Capabilities=0|0|0|0 , HT Operations=0|0|0 , VHT Capabilities= 0|0) ns3::WifiMacTrailer ()
r 0.204908 /NodeList/4/DeviceList/0/$ns3::WifiNetDevice/Phy/State/RxOk ns3::WifiMacHeader (MGT_BEACON ToDS=0, FromDS=0, MoreFrag=0, Retry=0, MoreData=0 Duration/ID=0us, DA=ff:ff:ff:ff:ff:ff, SA=00:00:00:00:00:08, BSSID=00:00:00:00:00:08, FragNumber=0, SeqNumber=5) ns3::MgtProbeResponseHeader (ssid=ns-3-ssid, rates=[*6mbs 9mbs *12mbs 18mbs *24mbs 36mbs 48mbs 54mbs], ERP information=0|0|0, HT Capabilities=0|0|0|0 , HT Operations=0|0|0 , VHT Capabilities= 0|0) ns3::WifiMacTrailer ()
r 0.204908 /NodeList/5/DeviceList/0/$ns3::WifiNetDevice/Phy/State/RxOk ns3::WifiMacHeader (MGT_BEACON ToDS=0, FromDS=0, MoreFrag=0, Retry=0, MoreData=0 Duration/ID=0us, DA=ff:ff:ff:ff:ff:ff, SA=00:00:00:00:00:08, BSSID=00:00:00:00:00:08, FragNumber=0, SeqNumber=5) ns3::MgtProbeResponseHeader (ssid=ns-3-ssid, rates=[*6mbs 9mbs *12mbs 18mbs *24mbs 36mbs 48mbs 54mbs], ERP information=0|0|0, HT Capabilities=0|0|0|0 , HT Operations=0|0|0 , VHT Capabilities= 0|0) ns3::WifiMacTrailer ()
r 0.204908 /NodeList/6/DeviceList/0/$ns3::WifiNetDevice/Phy/State/RxOk ns3::WifiMacHeader (MGT_BEACON ToDS=0, FromDS=0, MoreFrag=0, Retry=0, MoreData=0 Duration/ID=0us, DA=ff:ff:ff:ff:ff:ff, SA=00:00:00:00:00:08, BSSID=00:00:00:00:00:08, FragNumber=0, SeqNumber=5) ns3::MgtProbeResponseHeader (ssid=ns-3-ssid, rates=[*6mbs 9mbs *12mbs 18mbs *24mbs 36mbs 48mbs 54mbs], ERP information=0|0|0, HT Capabilities=0|0|0|0 , HT Operations=0|0|0 , VHT Capabilities= 0|0) ns3::WifiMacTrailer ()
t 0.3072 /NodeList/0/DeviceList/1/$ns3::WifiNetDevice/Phy/State/Tx ns3::WifiMacHeader (MGT_BEACON ToDS=0, FromDS=0, MoreFrag=0, Retry=0, MoreData=0 Duration/ID=0us, DA=ff:ff:ff:ff:ff:ff, SA=00:00:00:00:00:08, BSSID=00:00:00:00:00:08, FragNumber=0, SeqNumber=6) ns3::MgtProbeResponseHeader (ssid=ns-3-ssid, rates=[*6mbs 9mbs *12mbs 18mbs *24mbs 36mbs 48mbs 54mbs], ERP information=0|0|0, HT Capabilities=0|0|0|0 , HT Operations=0|0|0 , VHT Capabilities= 0|0) ns3::WifiMacTrailer ()
r 0.307308 /NodeList/4/DeviceList/0/$ns3::WifiNetDevice/Phy/State/RxOk ns3::WifiMacHeader (MGT_BEACON ToDS=0, FromDS=0, MoreFrag=0, Retry=0, MoreData=0 Duration/ID=0us, DA=ff:ff:ff:ff:ff:ff, SA=00:00:00:00:00:08, BSSID=00:00:00:00:00:08, FragNumber=0, SeqNumber=6) ns3::MgtProbeResponseHeader (ssid=ns-3-ssid, rates=[*6mbs 9mbs *12mbs 18mbs *24mbs 36mbs 48mbs 54mbs], ERP information=0|0|0, HT Capabilities=0|0|0|0 , HT Operations=0|0|0 , VHT Capabilities= 0|0) ns3::WifiMacTrailer ()
r 0.307308 /NodeList/5/DeviceList/0/$ns3::WifiNetDevice/Phy/State/RxOk ns3::WifiMacHeader (MGT_BEACON ToDS=0, FromDS=0, MoreFrag=0, Retry=0, MoreData=0 Duration/ID=0us, DA=ff:ff:ff:ff:ff:ff, SA=00:00:00:00:00:08, BSSID=00:00:00:00:00:08, FragNumber=0, SeqNumber=6) ns3::MgtProbeResponseHeader (ssid=ns-3-ssid, rates=[*6mbs 9mbs *12mbs 18mbs *24mbs 36mbs 48mbs 54mbs], ERP information=0|0|0, HT Capabilities=0|0|0|0 , HT Operations=0|0|0 , VHT Capabilities= 0|0) ns3::WifiMacTrailer ()
r 0.307308 /NodeList/6/DeviceList/0/$ns3::WifiNetDevice/Phy/State/RxOk ns3::WifiMacHeader (MGT_BEACON ToDS=0, FromDS=0, MoreFrag=0, Retry=0, MoreData=0 Duration/ID=0us, DA=ff:ff:ff:ff:ff:ff, SA=00:00:00:00:00:08, BSSID=00:00:00:00:00:08, FragNumber=0, SeqNumber=6) ns3::MgtProbeResponseHeader (ssid=ns-3-ssid, rates=[*6mbs 9mbs *12mbs 18mbs *24mbs 36mbs 48mbs 54mbs], ERP information=0|0|0, HT Capabilities=0|0|0|0 , HT Operations=0|0|0 , VHT Capabilities= 0|0) ns3::WifiMacTrailer ()
t 0.4096 /NodeList/0/DeviceList/1/$ns3::WifiNetDevice/Phy/State/Tx ns3::WifiMacHeader (MGT_BEACON ToDS=0, FromDS=0, MoreFrag=0, Retry=0, MoreData=0 Duration/ID=0us, DA=ff:ff:ff:ff:ff:ff, SA=00:00:00:00:00:08, BSSID=00:00:00:00:00:08, FragNumber=0, SeqNumber=7) ns3::MgtProbeResponseHeader (ssid=ns-3-ssid, rates=[*6mbs 9mbs *12mbs 18mbs *24mbs 36mbs 48mbs 54mbs], ERP information=0|0|0, HT Capabilities=0|0|0|0 , HT Operations=0|0|0 , VHT Capabilities= 0|0) ns3::WifiMacTrailer ()
r 0.409708 /NodeList/4/DeviceList/0/$ns3::WifiNetDevice/Phy/State/RxOk ns3::WifiMacHeader (MGT_BEACON ToDS=0, FromDS=0, MoreFrag=0, Retry=0, MoreData=0 Duration/ID=0us, DA=ff:ff:ff:ff:ff:ff, SA=00:00:00:00:00:08, BSSID=00:00:00:00:00:08, FragNumber=0, SeqNumber=7) ns3::MgtProbeResponseHeader (ssid=ns-3-ssid, rates=[*6mbs 9mbs *12mbs 18mbs *24mbs 36mbs 48mbs 54mbs], ERP information=0|0|0, HT Capabilities=0|0|0|0 , HT Operations=0|0|0 , VHT Capabilities= 0|0) ns3::WifiMacTrailer ()
r 0.409708 /NodeList/5/DeviceList/0/$ns3::WifiNetDevice/Phy/State/RxOk ns3::WifiMacHeader (MGT_BEACON ToDS=0, FromDS=0, MoreFrag=0, Retry=0, MoreData=0 Duration/ID=0us, DA=ff:ff:ff:ff:ff:ff, SA=00:00:00:00:00:08, BSSID=00:00:00:00:00:08, FragNumber=0, SeqNumber=7) ns3::MgtProbeResponseHeader (ssid=ns-3-ssid, rates=[*6mbs 9mbs *12mbs 18mbs *24mbs 36mbs 48mbs 54mbs], ERP information=0|0|0, HT Capabilities=0|0|0|0 , HT Operations=0|0|0 , VHT Capabilities= 0|0) ns3::WifiMacTrailer ()
r 0.409708 /NodeList/6/DeviceList/0/$ns3::WifiNetDevice/Phy/State/RxOk ns3::WifiMacHeader (MGT_BEACON ToDS=0, FromDS=0, MoreFrag=0, Retry=0, MoreData=0 Duration/ID=0us, DA=ff:ff:ff:ff:ff:ff, SA=00:00:00:00:00:08, BSSID=00:00:00:00:00:08, FragNumber=0, SeqNumber=7) ns3::MgtProbeResponseHeader (ssid=ns-3-ssid, rates=[*6mbs 9mbs *12mbs 18mbs *24mbs 36mbs 48mbs 54mbs], ERP information=0|0|0, HT Capabilities=0|0|0|0 , HT Operations=0|0|0 , VHT Capabilities= 0|0) ns3::WifiMacTrailer ()
t 0.512 /NodeList/0/DeviceList/1/$ns3::WifiNetDevice/Phy/State/Tx ns3::WifiMacHeader (MGT_BEACON ToDS=0, FromDS=0, MoreFrag=0, Retry=0, MoreData=0 Duration/ID=0us, DA=ff:ff:ff:ff:ff:ff, SA=00:00:00:00:00:08, BSSID=00:00:00:00:00:08, FragNumber=0, SeqNumber=8) ns3::MgtProbeResponseHeader (ssid=ns-3-ssid, rates=[*6mbs 9mbs *12mbs 18mbs *24mbs 36mbs 48mbs 54mbs], ERP information=0|0|0, HT Capabilities=0|0|0|0 , HT Operations=0|0|0 , VHT Capabilities= 0|0) ns3::WifiMacTrailer ()
r 0.512108 /NodeList/4/DeviceList/0/$ns3::WifiNetDevice/Phy/State/RxOk ns3::WifiMacHeader (MGT_BEACON ToDS=0, FromDS=0, MoreFrag=0, Retry=0, MoreData=0 Duration/ID=0us, DA=ff:ff:ff:ff:ff:ff, SA=00:00:00:00:00:08, BSSID=00:00:00:00:00:08, FragNumber=0, SeqNumber=8) ns3::MgtProbeResponseHeader (ssid=ns-3-ssid, rates=[*6mbs 9mbs *12mbs 18mbs *24mbs 36mbs 48mbs 54mbs], ERP information=0|0|0, HT Capabilities=0|0|0|0 , HT Operations=0|0|0 , VHT Capabilities= 0|0) ns3::WifiMacTrailer ()
r 0.512108 /NodeList/5/DeviceList/0/$ns3::WifiNetDevice/Phy/State/RxOk ns3::WifiMacHeader (MGT_BEACON ToDS=0, FromDS=0, MoreFrag=0, Retry=0, MoreData=0 Duration/ID=0us, DA=ff:ff:ff:ff:ff:ff, SA=00:00:00:00:00:08, BSSID=00:00:00:00:00:08, FragNumber=0, SeqNumber=8) ns3::MgtProbeResponseHeader (ssid=ns-3-ssid, rates=[*6mbs 9mbs *12mbs 18mbs *24mbs 36mbs 48mbs 54mbs], ERP information=0|0|0, HT Capabilities=0|0|0|0 , HT Operations=0|0|0 , VHT Capabilities= 0|0) ns3::WifiMacTrailer ()
r 0.512108 /NodeList/6/DeviceList/0/$ns3::WifiNetDevice/Phy/State/RxOk ns3::WifiMacHeader (MGT_BEACON ToDS=0, FromDS=0, MoreFrag=0, Retry=0, MoreData=0 Duration/ID=0us, DA=ff:ff:ff:ff:ff:ff, SA=00:00:00:00:00:08, BSSID=00:00:00:00:00:08, FragNumber=0, SeqNumber=8) ns3::MgtProbeResponseHeader (ssid=ns-3-ssid, rates=[*6mbs 9mbs *12mbs 18mbs *24mbs 36mbs 48mbs 54mbs], ERP information=0|0|0, HT Capabilities=0|0|0|0 , HT Operations=0|0|0 , VHT Capabilities= 0|0) ns3::WifiMacTrailer ()
t 0.6144 /NodeList/0/DeviceList/1/$ns3::WifiNetDevice/Phy/State/Tx ns3::WifiMacHeader (MGT_BEACON ToDS=0, FromDS=0, MoreFrag=0, Retry=0, MoreData=0 Duration/ID=0us, DA=ff:ff:ff:ff:ff:ff, SA=00:00:00:00:00:08, BSSID=00:00:00:00:00:08, FragNumber=0, SeqNumber=9) ns3::MgtProbeResponseHeader (ssid=ns-3-ssid, rates=[*6mbs 9mbs *12mbs 18mbs *24mbs 36mbs 48mbs 54mbs], ERP information=0|0|0, HT Capabilities=0|0|0|0 , HT Operations=0|0|0 , VHT Capabilities= 0|0) ns3::WifiMacTrailer ()
r 0.614508 /NodeList/4/DeviceList/0/$ns3::WifiNetDevice/Phy/State/RxOk ns3::WifiMacHeader (MGT_BEACON ToDS=0, FromDS=0, MoreFrag=0, Retry=0, MoreData=0 Duration/ID=0us, DA=ff:ff:ff:ff:ff:ff, SA=00:00:00:00:00:08, BSSID=00:00:00:00:00:08, FragNumber=0, SeqNumber=9) ns3::MgtProbeResponseHeader (ssid=ns-3-ssid, rates=[*6mbs 9mbs *12mbs 18mbs *24mbs 36mbs 48mbs 54mbs], ERP information=0|0|0, HT Capabilities=0|0|0|0 , HT Operations=0|0|0 , VHT Capabilities= 0|0) ns3::WifiMacTrailer ()
r 0.614508 /NodeList/5/DeviceList/0/$ns3::WifiNetDevice/Phy/State/RxOk ns3::WifiMacHeader (MGT_BEACON ToDS=0, FromDS=0, MoreFrag=0, Retry=0, MoreData=0 Duration/ID=0us, DA=ff:ff:ff:ff:ff:ff, SA=00:00:00:00:00:08, BSSID=00:00:00:00:00:08, FragNumber=0, SeqNumber=9) ns3::MgtProbeResponseHeader (ssid=ns-3-ssid, rates=[*6mbs 9mbs *12mbs 18mbs *24mbs 36mbs 48mbs 54mbs], ERP information=0|0|0, HT Capabilities=0|0|0|0 , HT Operations=0|0|0 , VHT Capabilities= 0|0) ns3::WifiMacTrailer ()
r 0.614508 /NodeList/6/DeviceList/0/$ns3::WifiNetDevice/Phy/State/RxOk ns3::WifiMacHeader (MGT_BEACON ToDS=0, FromDS=0, MoreFrag=0, Retry=0, MoreData=0 Duration/ID=0us, DA=ff:ff:ff:ff:ff:ff, SA=00:00:00:00:00:08, BSSID=00:00:00:00:00:08, FragNumber=0, SeqNumber=9) ns3::MgtProbeResponseHeader (ssid=ns-3-ssid, rates=[*6mbs 9mbs *12mbs 18mbs *24mbs 36mbs 48mbs 54mbs], ERP information=0|0|0, HT Capabilities=0|0|0|0 , HT Operations=0|0|0 , VHT Capabilities= 0|0) ns3::WifiMacTrailer ()
t 0.7168 /NodeList/0/DeviceList/1/$ns3::WifiNetDevice/Phy/State/Tx ns3::WifiMacHeader (MGT_BEACON ToDS=0, FromDS=0, MoreFrag=0, Retry=0, MoreData=0 Duration/ID=0us, DA=ff:ff:ff:ff:ff:ff, SA=00:00:00:00:00:08, BSSID=00:00:00:00:00:08, FragNumber=0, SeqNumber=10) ns3::MgtProbeResponseHeader (ssid=ns-3-ssid, rates=[*6mbs 9mbs *12mbs 18mbs *24mbs 36mbs 48mbs 54mbs], ERP information=0|0|0, HT Capabilities=0|0|0|0 , HT Operations=0|0|0 , VHT Capabilities= 0|0) ns3::WifiMacTrailer ()
r 0.716908 /NodeList/4/DeviceList/0/$ns3::WifiNetDevice/Phy/State/RxOk ns3::WifiMacHeader (MGT_BEACON ToDS=0, FromDS=0, MoreFrag=0, Retry=0, MoreData=0 Duration/ID=0us, DA=ff:ff:ff:ff:ff:ff, SA=00:00:00:00:00:08, BSSID=00:00:00:00:00:08, FragNumber=0, SeqNumber=10) ns3::MgtProbeResponseHeader (ssid=ns-3-ssid, rates=[*6mbs 9mbs *12mbs 18mbs *24mbs 36mbs 48mbs 54mbs], ERP information=0|0|0, HT Capabilities=0|0|0|0 , HT Operations=0|0|0 , VHT Capabilities= 0|0) ns3::WifiMacTrailer ()